
Host: ds2

Timers On : Wed Aug  7 14:00:40 2024
Timers Off: Wed Aug  7 14:00:50 2024

Wall Time:       10.05 seconds

                                                       Time (seconds)
Module                                       User      System        Wall        Calls

--------------------------------------------------------------------------------------

**************************************************************************************

Host: ds2

Timers On : Wed Aug  7 14:01:42 2024
Timers Off: Wed Aug  7 14:01:46 2024

Wall Time:        3.79 seconds

                                                       Time (seconds)
Module                                       User      System        Wall        Calls

--------------------------------------------------------------------------------------

**************************************************************************************

Host: ds2

Timers On : Wed Aug  7 14:02:03 2024
Timers Off: Wed Aug  7 14:02:14 2024

Wall Time:       10.49 seconds

                                                       Time (seconds)
Module                                       User      System        Wall        Calls

--------------------------------------------------------------------------------------

**************************************************************************************

Host: ds2

Timers On : Wed Aug  7 14:02:06 2024
Timers Off: Wed Aug  7 14:02:14 2024

Wall Time:        8.35 seconds

                                                       Time (seconds)
Module                                       User      System        Wall        Calls

--------------------------------------------------------------------------------------

**************************************************************************************

Host: ds2

Timers On : Wed Aug  7 14:03:31 2024
Timers Off: Wed Aug  7 14:03:38 2024

Wall Time:        7.15 seconds

                                                       Time (seconds)
Module                                       User      System        Wall        Calls

--------------------------------------------------------------------------------------

**************************************************************************************

Host: ds2

Timers On : Wed Aug  7 14:05:39 2024
Timers Off: Wed Aug  7 14:05:51 2024

Wall Time:       11.43 seconds

                                                       Time (seconds)
Module                                       User      System        Wall        Calls

--------------------------------------------------------------------------------------

**************************************************************************************

Host: ds2

Timers On : Wed Aug  7 14:58:00 2024
Timers Off: Wed Aug  7 14:58:09 2024

Wall Time:        9.19 seconds

                                                       Time (seconds)
Module                                       User      System        Wall        Calls

--------------------------------------------------------------------------------------

**************************************************************************************

Host: ds2

Timers On : Wed Aug  7 14:58:19 2024
Timers Off: Wed Aug  7 14:58:28 2024

Wall Time:        8.48 seconds

                                                       Time (seconds)
Module                                       User      System        Wall        Calls

--------------------------------------------------------------------------------------

**************************************************************************************

Host: ds2

Timers On : Wed Aug  7 14:59:11 2024
Timers Off: Wed Aug  7 14:59:19 2024

Wall Time:        8.66 seconds

                                                       Time (seconds)
Module                                       User      System        Wall        Calls

--------------------------------------------------------------------------------------

**************************************************************************************

Host: ds2

Timers On : Wed Aug  7 15:05:47 2024
Timers Off: Wed Aug  7 15:05:56 2024

Wall Time:        9.22 seconds

                                                       Time (seconds)
Module                                       User      System        Wall        Calls

--------------------------------------------------------------------------------------

**************************************************************************************

Host: ds2

Timers On : Wed Aug  7 15:18:18 2024
Timers Off: Wed Aug  7 15:18:29 2024

Wall Time:       11.13 seconds

                                                       Time (seconds)
Module                                       User      System        Wall        Calls

--------------------------------------------------------------------------------------

**************************************************************************************

Host: ds2

Timers On : Wed Aug  7 15:19:31 2024
Timers Off: Wed Aug  7 15:19:40 2024

Wall Time:        8.94 seconds

                                                       Time (seconds)
Module                                       User      System        Wall        Calls

--------------------------------------------------------------------------------------

**************************************************************************************
